                         Program Version 4.2.1 -  RELEASE  -
|  1> # functional/basis
|  2> ! PBE def2-TZVP
|  3>
|  4> # TDDFT block
|  5> %TDDFT  NROOTS  5
|  6>         DOSOC   TRUE
|  7> END
|  8>
|  9> # geometry
| 10> * xyzFile -1 1 nv_cluster.xyz
| 11>
| 12> # parallelization
| 13> %PAL NPROCS 72 END
| 14>
| 15>                          ****END OF INPUT****

CARTESIAN COORDINATES (ANGSTROEM)
---------------------------------
  C      8.091600    6.206040    8.091600
  C      8.028270    8.028270    9.810990
  C      9.804780    6.248830    6.248830
  C      6.248830    9.804780    6.248830
  C      6.248830    6.248830    9.804780
  C      8.013620    6.253760    4.476130
  C      4.476130    6.253760    8.013620
  C      6.253760    8.013620    4.476130
  C      6.253760    4.476130    8.013620
  C      8.013620    4.476130    6.253760
  C      4.476130    8.013620    6.253760
  C      5.355250    5.355250    7.096690
  C      5.355250    7.096690    5.355250
  C      7.096690    5.355250    5.355250
  C      8.917750    8.917750    7.130610
  C      8.917750    7.130610    8.917750
  C      7.130610    8.917750    8.917750
  C      8.907460    7.147320    5.371140
  C      5.371140    7.147320    8.907460
  C      7.147320    8.907460    5.371140
  C      7.147320    5.371140    8.907460
  C      8.907460    5.371140    7.147320
  C      5.371140    8.907460    7.147320
  C      8.091600    8.091600    6.206040
  C      6.206040    8.091600    8.091600
  C      9.810990    8.028270    8.028270
  C      8.028270    9.810990    8.028270
  N      6.164130    6.164130    6.164130
  H      7.413360    7.413360   10.434410
  H      8.648950    8.648950   10.422890
  H     10.436790    6.859340    6.859340
  H     10.413920    5.626790    5.626790
  H      5.623980   10.408140    5.623980
  H      6.856400   10.442440    6.856400
  H      6.859340    6.859340   10.436790
  H      5.626790    5.626790   10.413920
  H      7.405680    6.875000    3.852130
  H      8.638760    5.628850    3.873150
  H      3.864670    5.633050    8.634700
  H      3.860530    6.879190    7.401440
  H      5.633050    8.634700    3.864670
  H      6.879190    7.401440    3.860530
  H      6.875000    3.852130    7.405680
  H      5.628850    3.873150    8.638760
  H      8.634700    3.864670    5.633050
  H      7.401440    3.860530    6.879190
  H      3.852130    7.405680    6.875000
  H      3.873150    8.638760    5.628850
  H      4.732430    4.732430    6.489170
  H      4.732430    6.489170    4.732430
  H      6.489170    4.732430    4.732430
  H      9.540160    9.540160    6.522250
  H      9.540160    6.522250    9.540160
  H      6.522250    9.540160    9.540160
  H      9.525800    7.755210    4.744220
  H      4.744220    7.755210    9.525800
  H      7.755210    9.525800    4.744220
  H      7.755210    4.744220    9.525800
  H      9.525800    4.744220    7.755210
  H      4.744220    9.525800    7.755210
  H     10.423080    8.648860    8.648860
  H     10.434230    7.413260    7.413260
  H      7.413360   10.434410    7.413360
  H      8.648950   10.422890    8.648950

 Total Charge           Charge          ....   -1
 Multiplicity           Mult            ....    1
 Number of Electrons    NEL             ....  206
 Basis Dimension        Dim             .... 1084

ORBITAL ENERGIES
----------------

  NO   OCC          E(Eh)            E(eV)
   0   2.0000     -13.840401      -376.6165
   1   2.0000      -9.788095      -266.3476
   2   2.0000      -9.788090      -266.3475
   3   2.0000      -9.785642      -266.2809
   4   2.0000      -9.759640      -265.5733
   5   2.0000      -9.759519      -265.5700
   6   2.0000      -9.757069      -265.5034
   7   2.0000      -9.750932      -265.3364
   8   2.0000      -9.744770      -265.1687
   9   2.0000      -9.744654      -265.1655
  10   2.0000      -9.741641      -265.0835
  11   2.0000      -9.741007      -265.0663
  12   2.0000      -9.740710      -265.0582
  13   2.0000      -9.740598      -265.0551
  14   2.0000      -9.737216      -264.9631
  15   2.0000      -9.737212      -264.9630
  16   2.0000      -9.732383      -264.8316
  17   2.0000      -9.732049      -264.8225
  18   2.0000      -9.731747      -264.8143
  19   2.0000      -9.731415      -264.8053
  20   2.0000      -9.727362      -264.6950
  21   2.0000      -9.727356      -264.6948
  22   2.0000      -9.724272      -264.6109
  23   2.0000      -9.724262      -264.6106
  24   2.0000      -9.722119      -264.5523
  25   2.0000      -9.718709      -264.4595
  26   2.0000      -9.700320      -263.9591
  27   2.0000      -9.700311      -263.9589
  28   2.0000      -0.730396       -19.8751
  29   2.0000      -0.670124       -18.2350
  30   2.0000      -0.654400       -17.8071
  31   2.0000      -0.650862       -17.7109
  32   2.0000      -0.611226       -16.6323
  33   2.0000      -0.598860       -16.2958
  34   2.0000      -0.598747       -16.2927
  35   2.0000      -0.583289       -15.8721
  36   2.0000      -0.581773       -15.8309
  37   2.0000      -0.546639       -14.8748
  38   2.0000      -0.523148       -14.2356
  39   2.0000      -0.521967       -14.2034
  40   2.0000      -0.519431       -14.1344
  41   2.0000      -0.518867       -14.1191
  42   2.0000      -0.512217       -13.9381
  43   2.0000      -0.498416       -13.5626
  44   2.0000      -0.445326       -12.1179
  45   2.0000      -0.444629       -12.0990
  46   2.0000      -0.425259       -11.5719
  47   2.0000      -0.406870       -11.0715
  48   2.0000      -0.406816       -11.0700
  49   2.0000      -0.400417       -10.8959
  50   2.0000      -0.398275       -10.8376
  51   2.0000      -0.385796       -10.4980
  52   2.0000      -0.383292       -10.4299
  53   2.0000      -0.359548        -9.7838
  54   2.0000      -0.358902        -9.7662
  55   2.0000      -0.357452        -9.7268
  56   2.0000      -0.346865        -9.4387
  57   2.0000      -0.314305        -8.5527
  58   2.0000      -0.311239        -8.4693
  59   2.0000      -0.309276        -8.4158
  60   2.0000      -0.301586        -8.2066
  61   2.0000      -0.299692        -8.1550
  62   2.0000      -0.283896        -7.7252
  63   2.0000      -0.279771        -7.6130
  64   2.0000      -0.279357        -7.6017
  65   2.0000      -0.278583        -7.5806
  66   2.0000      -0.275534        -7.4977
  67   2.0000      -0.247307        -6.7296
  68   2.0000      -0.241771        -6.5789
  69   2.0000      -0.239290        -6.5114
  70   2.0000      -0.232487        -6.3263
  71   2.0000      -0.230725        -6.2783
  72   2.0000      -0.228126        -6.2076
  73   2.0000      -0.225602        -6.1389
  74   2.0000      -0.215258        -5.8575
  75   2.0000      -0.214186        -5.8283
  76   2.0000      -0.212116        -5.7720
  77   2.0000      -0.198333        -5.3969
  78   2.0000      -0.191388        -5.2079
  79   2.0000      -0.190266        -5.1774
  80   2.0000      -0.180504        -4.9118
  81   2.0000      -0.180056        -4.8996
  82   2.0000      -0.175360        -4.7718
  83   2.0000      -0.170131        -4.6295
  84   2.0000      -0.166556        -4.5322
  85   2.0000      -0.161262        -4.3881
  86   2.0000      -0.161008        -4.3812
  87   2.0000      -0.158837        -4.3222
  88   2.0000      -0.155435        -4.2296
  89   2.0000      -0.149706        -4.0737
  90   2.0000      -0.146531        -3.9873
  91   2.0000      -0.135600        -3.6899
  92   2.0000      -0.122429        -3.3315
  93   2.0000      -0.118190        -3.2161
  94   2.0000      -0.098926        -2.6919
  95   2.0000      -0.093609        -2.5472
  96   2.0000      -0.092657        -2.5213
  97   2.0000      -0.072446        -1.9714
  98   2.0000      -0.060692        -1.6515
  99   2.0000      -0.058235        -1.5847
 100   2.0000      -0.056722        -1.5435
 101   2.0000       0.006469         0.1760
 102   2.0000       0.073522         2.0006
 103   0.0000       0.057292         1.5590
 104   0.0000       0.115066         3.1311
 105   0.0000       0.133205         3.6247
 106   0.0000       0.135599         3.6898
 107   0.0000       0.137217         3.7339

MULLIKEN ATOMIC CHARGES
-----------------------
   0 C :   -0.230520
   1 C :   -0.021169
   2 C :    0.006608
   3 C :   -0.110351
   4 C :    0.005992
   5 C :   -0.028954
   6 C :   -0.038153
   7 C :   -0.039027
   8 C :   -0.105821
   9 C :   -0.111072
  10 C :   -0.029787
  11 C :    0.012042
  12 C :   -0.047621
  13 C :    0.011432
  14 C :    0.117249
  15 C :    0.020936
  16 C :    0.117408
  17 C :    0.132457
  18 C :    0.136697
  19 C :    0.124547
  20 C :    0.073935
  21 C :    0.075946
  22 C :    0.120762
  23 C :   -0.117287
  24 C :   -0.117247
  25 C :   -0.021196
  26 C :   -0.115504
  27 N :    0.038306
  28 H :    0.078114
  29 H :   -0.011053
  30 H :    0.062710
  31 H :   -0.024417
  32 H :   -0.008957
  33 H :    0.078916
  34 H :    0.062668
  35 H :   -0.024277
  36 H :    0.069483
  37 H :   -0.008804
  38 H :   -0.007986
  39 H :    0.069821
  40 H :    0.001164
  41 H :    0.092552
  42 H :    0.088218
  43 H :    0.014994
  44 H :    0.015667
  45 H :    0.084405
  46 H :    0.092128
  47 H :    0.000304
  48 H :   -0.085374
  49 H :   -0.083568
  50 H :   -0.085317
  51 H :   -0.198237
  52 H :   -0.067226
  53 H :   -0.198349
  54 H :   -0.249693
  55 H :   -0.250145
  56 H :   -0.191983
  57 H :   -0.058182
  58 H :   -0.058318
  59 H :   -0.191846
  60 H :   -0.011069
  61 H :    0.078111
  62 H :    0.070383
  63 H :   -0.005445
Sum of atomic charges:   -1.0000000

LOEWDIN ATOMIC CHARGES
----------------------
   0 C :   -0.080195
   1 C :   -0.178569
   2 C :   -0.183810
   3 C :   -0.187295
   4 C :   -0.183816
   5 C :   -0.184904
   6 C :   -0.184734
   7 C :   -0.185386
   8 C :   -0.183606
   9 C :   -0.183405
  10 C :   -0.185561
  11 C :   -0.240434
  12 C :   -0.238126
  13 C :   -0.240427
  14 C :   -0.222739
  15 C :   -0.208822
  16 C :   -0.222736
  17 C :   -0.229084
  18 C :   -0.229219
  19 C :   -0.215237
  20 C :   -0.205157
  21 C :   -0.205308
  22 C :   -0.215099
  23 C :   -0.164899
  24 C :   -0.164904
  25 C :   -0.178556
  26 C :   -0.180936
  27 N :    0.187864
  28 H :    0.105039
  29 H :    0.117138
  30 H :    0.106332
  31 H :    0.114745
  32 H :    0.117498
  33 H :    0.108570
  34 H :    0.106330
  35 H :    0.114764
  36 H :    0.103017
  37 H :    0.120348
  38 H :    0.119891
  39 H :    0.101930
  40 H :    0.121049
  41 H :    0.101626
  42 H :    0.103547
  43 H :    0.124784
  44 H :    0.124332
  45 H :    0.102358
  46 H :    0.102730
  47 H :    0.121496
  48 H :    0.112331
  49 H :    0.112507
  50 H :    0.112330
  51 H :    0.111254
  52 H :    0.137718
  53 H :    0.111242
  54 H :    0.099385
  55 H :    0.099359
  56 H :    0.115506
  57 H :    0.141594
  58 H :    0.141564
  59 H :    0.115524
  60 H :    0.117125
  61 H :    0.105023
  62 H :    0.107006
  63 H :    0.118110

  Mayer bond orders larger than 0.100000
B(  0-C , 15-C ) :   1.0496 B(  0-C , 20-C ) :   0.9958 B(  0-C , 21-C ) :   0.9950
B(  0-C , 23-C ) :   0.3505 B(  0-C , 24-C ) :   0.3514 B(  1-C , 15-C ) :   0.9895
B(  1-C , 16-C ) :   0.9874 B(  1-C , 24-C ) :  -0.1019 B(  1-C , 28-H ) :   0.8155
B(  1-C , 29-H ) :   0.9020 B(  2-C , 17-C ) :   0.9999 B(  2-C , 21-C ) :   1.0126
B(  2-C , 30-H ) :   0.8084 B(  2-C , 31-H ) :   0.8927 B(  3-C , 19-C ) :   1.0114
B(  3-C , 22-C ) :   1.0114 B(  3-C , 32-H ) :   0.9027 B(  3-C , 33-H ) :   0.8230
B(  4-C , 18-C ) :   1.0004 B(  4-C , 20-C ) :   1.0122 B(  4-C , 34-H ) :   0.8086
B(  4-C , 35-H ) :   0.8929 B(  5-C , 13-C ) :   0.9863 B(  5-C , 17-C ) :   0.9866
B(  5-C , 36-H ) :   0.7941 B(  5-C , 37-H ) :   0.9000 B(  6-C , 11-C ) :   0.9842
B(  6-C , 18-C ) :   0.9837 B(  6-C , 38-H ) :   0.9017 B(  6-C , 39-H ) :   0.8023
B(  7-C , 12-C ) :   0.9732 B(  7-C , 19-C ) :   0.9795 B(  7-C , 40-H ) :   0.9029
B(  7-C , 41-H ) :   0.8037 B(  8-C , 11-C ) :   0.9845 B(  8-C , 20-C ) :   0.9876
B(  8-C , 42-H ) :   0.8086 B(  8-C , 43-H ) :   0.9146 B(  9-C , 13-C ) :   0.9822
B(  9-C , 21-C ) :   0.9849 B(  9-C , 44-H ) :   0.9161 B(  9-C , 45-H ) :   0.8158
B( 10-C , 12-C ) :   0.9747 B( 10-C , 22-C ) :   0.9817 B( 10-C , 46-H ) :   0.7957
B( 10-C , 47-H ) :   0.9009 B( 11-C , 27-N ) :   1.0059 B( 11-C , 48-H ) :   0.8552
B( 12-C , 27-N ) :   1.0031 B( 12-C , 49-H ) :   0.8607 B( 13-C , 27-N ) :   1.0059
B( 13-C , 50-H ) :   0.8554 B( 14-C , 23-C ) :   1.1513 B( 14-C , 25-C ) :   0.9874
B( 14-C , 26-C ) :   1.0001 B( 14-C , 51-H ) :   0.6917 B( 15-C , 25-C ) :   0.9894
B( 15-C , 52-H ) :   0.8035 B( 16-C , 24-C ) :   1.1514 B( 16-C , 26-C ) :   1.0001
B( 16-C , 53-H ) :   0.6916 B( 17-C , 23-C ) :   1.1050 B( 17-C , 54-H ) :   0.6537
B( 18-C , 24-C ) :   1.1027 B( 18-C , 55-H ) :   0.6511 B( 19-C , 23-C ) :   1.1059
B( 19-C , 56-H ) :   0.6984 B( 20-C , 57-H ) :   0.8070 B( 21-C , 58-H ) :   0.8064
B( 22-C , 24-C ) :   1.1087 B( 22-C , 59-H ) :   0.7003 B( 23-C , 24-C ) :   0.1244
B( 23-C , 25-C ) :  -0.1019 B( 25-C , 60-H ) :   0.9020 B( 25-C , 61-H ) :   0.8155
B( 26-C , 62-H ) :   0.8306 B( 26-C , 63-H ) :   0.9114 B( 28-H , 34-H ) :   0.2636
B( 30-H , 61-H ) :   0.2637 B( 33-H , 62-H ) :   0.2606 B( 36-H , 41-H ) :   0.2800
B( 39-H , 46-H ) :   0.2801 B( 42-H , 45-H ) :   0.2731

-----------------------------------------------------------------------------
  SOC CORRECTED ABSORPTION SPECTRUM VIA TRANSITION ELECTRIC DIPOLE MOMENTS*
-----------------------------------------------------------------------------
State   Energy  Wavelength   fosc         T2         TX        TY        TZ
        (cm-1)    (nm)                  (au**2)     (au)      (au)      (au)
-----------------------------------------------------------------------------
   1       0.0   11515730271.4   0.000000000   0.00000   0.00000   0.00000   0.00000
   2       0.0   9083016654.0   0.000000000   0.00000   0.00000   0.00000   0.00000
   3    6639.9   1506.0   0.000000012   0.00000   0.00030   0.00063   0.00030
   4   12711.2    786.7   0.000000005   0.00000   0.00026   0.00000   0.00026
   5   14435.2    692.7   0.091089786   2.07741   1.01912   0.00002   1.01921
   6   14435.2    692.7   0.000000014   0.00000   0.00024   0.00050   0.00013
   7   14435.2    692.7   0.006670578   0.15213   0.27579   0.00000   0.27581
   8   15445.1    647.5   0.044653034   0.95178   0.31864   0.86516   0.31898
   9   15445.1    647.5   0.000034549   0.00074   0.00867   0.02406   0.00906
  10   15445.1    647.5   0.025031566   0.53355   0.23833   0.64793   0.23860
  11   16393.6    610.0   0.000000017   0.00000   0.00041   0.00000   0.00041
  12   19561.0    511.2   0.000002714   0.00005   0.00491   0.00016   0.00464
  13   19561.0    511.2   0.030013967   0.50513   0.36006   0.49540   0.36065
  14   19561.1    511.2   0.000095424   0.00161   0.02024   0.02802   0.02027
  15   19716.5    507.2   0.000219343   0.00366   0.04289   0.00011   0.04270
  16   19716.6    507.2   0.007849128   0.13106   0.25657   0.00061   0.25540
  17   19716.6    507.2   0.000009854   0.00016   0.00548   0.00885   0.00749
  18   19895.6    502.6   0.000000224   0.00000   0.00136   0.00000   0.00136
  19   20882.2    478.9   0.000000010   0.00000   0.00027   0.00001   0.00027
  20   21402.4    467.2   0.000000004   0.00000   0.00018   0.00000   0.00018

FINAL SINGLE POINT ENERGY     -1103.349905522846

DIPOLE MOMENT
-------------
                                X             Y             Z
Electronic contribution:     -0.27212      -1.38569      -0.27168
Nuclear contribution   :      0.18839       0.19299       0.18822
                        -----------------------------------------
Total Dipole Moment    :     -0.08373      -1.19271      -0.08346
                        -----------------------------------------
Magnitude (a.u.)       :      1.19855
Magnitude (Debye)      :      3.04647

Rotational constants in cm-1:     0.009246     0.009141     0.009141
Rotational constants in MHz :   277.183012   274.048569   274.045290

                             ****ORCA TERMINATED NORMALLY****
TOTAL RUN TIME: 0 days 0 hours 5 minutes 59 seconds 13 msec
